# vtk DataFile Version 4.2
vtk output
ASCII
DATASET POLYDATA
POINTS 67198 float
7.13876 -3.28575 4.41685 7.19725 -3.33938 4.34214 7.24889 -3.39154 4.25533 
7.29315 -3.44093 4.15778 7.32967 -3.48623 4.05066 7.35808 -3.52572 3.93521 
7.37776 -3.55766 3.8132 7.38865 -3.58109 3.68673 7.3911 -3.59488 3.55792 
7.38506 -3.59823 3.42888 7.37085 -3.59048 3.30177 7.34934 -3.57134 3.1789 
7.32123 -3.54085 3.06224 7.28721 -3.4991 2.95364 7.24832 -3.44655 2.85494 
7.20558 -3.38385 2.76707 7.16022 -3.31209 2.69157 7.11327 -3.23202 2.62969 
7.06534 -3.14447 2.58174 7.01719 -3.05108 2.54796 7.01719 -3.05108 2.54796 
6.96976 -2.95255 2.52896 6.92402 -2.84992 2.52482 6.88063 -2.7447 2.53451 
6.83971 -2.63806 2.55784 6.8021 -2.5311 2.59477 6.76884 -2.42555 2.64435 
6.7397 -2.32174 2.706 6.71482 -2.22111 2.77841 6.69434 -2.12385 2.86208 
6.67912 -2.03134 2.9557 6.66897 -1.94419 3.05791 6.66356 -1.86339 3.16702 
6.66324 -1.78906 3.28404 6.66835 -1.72246 3.40693 6.67875 -1.66368 3.53453 
6.6941 -1.61256 3.66659 6.71458 -1.57029 3.80174 6.74022 -1.53755 3.93871 
6.77084 -1.5142 4.07651 6.80643 -1.50085 4.21438 6.84666 -1.49736 4.35094 
7.07859 -2.96867 4.44269 7.14395 -3.01253 4.41289 7.20642 -3.05969 4.37127 
7.26499 -3.1089 4.31841 7.31894 -3.15889 4.25468 7.36772 -3.20846 4.1805 
7.41103 -3.25696 4.09671 7.44748 -3.3025 4.00344 7.47699 -3.34376 3.90178 
7.4992 -3.37991 3.79348 7.51351 -3.40936 3.67987 7.52005 -3.43064 3.56262 
7.51923 -3.44361 3.44381 7.51086 -3.44744 3.32527 7.49532 -3.44119 3.20892 
7.47354 -3.42481 3.09646 7.44598 -3.39869 2.98994 7.41322 -3.36265 2.89092 
7.376 -3.31679 2.80071 7.33565 -3.26192 2.72021 7.29298 -3.19883 2.6511 
7.24827 -3.1283 2.59336 7.20237 -3.05108 2.54796 7.20237 -3.05108 2.54796 
7.15652 -2.96905 2.51502 7.11114 -2.88227 2.49525 7.06704 -2.79132 2.489 
7.02447 -2.69799 2.49518 6.98409 -2.60329 2.514 6.9465 -2.50774 2.54536 
6.91239 -2.41242 2.58863 6.88172 -2.31851 2.6424 6.85462 -2.22678 2.70641 
6.83156 -2.13789 2.7802 6.81298 -2.05252 2.86342 6.79918 -1.97155 2.95535 
6.79023 -1.89626 3.05471 6.78599 -1.82694 3.16053 6.78606 -1.76343 3.27229 
6.79145 -1.70727 3.3893 6.80146 -1.65797 3.51057 6.81591 -1.61555 3.63534 
6.83537 -1.58137 3.76274 6.85945 -1.55579 3.89152 6.88842 -1.53905 4.02094 
6.92204 -1.53148 4.15 6.96014 -1.53335 4.27693 7.00337 -1.54511 4.40132 
6.25554 -3.59114 3.78007 6.26435 -3.5211 3.76269 6.27429 -3.44902 3.75251 
6.28599 -3.37554 3.74968 6.30007 -3.30146 3.75417 6.31706 -3.22761 3.76577 
6.33691 -3.15467 3.78374 6.35976 -3.08438 3.80738 6.38599 -3.01761 3.83614 
6.41525 -2.954 3.86941 6.44764 -2.89414 3.90678 6.48387 -2.83962 3.9476 
6.52378 -2.79085 3.99088 6.56674 -2.74835 4.03545 6.6126 -2.71282 4.0803 
6.66133 -2.68457 4.12436 6.71283 -2.66381 4.16659 6.76696 -2.65068 4.20591 
6.82298 -2.64452 4.24124 6.88023 -2.64495 4.27196 6.93883 -2.65244 4.29729 
6.99845 -2.66679 4.31638 7.05881 -2.68779 4.32852 7.1195 -2.71505 4.33295 
7.18005 -2.74805 4.32898 7.23969 -2.7858 4.31603 7.2979 -2.82778 4.294 
7.35379 -2.8734 4.26217 7.40664 -2.92168 4.22023 7.45587 -2.9716 4.16816 
7.50089 -3.02207 4.10614 7.54119 -3.0717 4.0345 7.57634 -3.11929 3.95379 
7.60592 -3.16408 3.86507 7.62921 -3.20441 3.7696 7.646 -3.23961 3.6685 
7.65592 -3.26855 3.56285 7.65903 -3.29053 3.45458 7.65541 -3.30494 3.34513 
7.64522 -3.31111 3.23576 7.6288 -3.30843 3.12807 7.60668 -3.2968 3.02412 
7.57961 -3.27682 2.92497 7.5479 -3.24796 2.83222 7.51205 -3.21004 2.74719 
7.47295 -3.16414 2.67088 7.4312 -3.11102 2.60416 7.38756 -3.05108 2.54796 
7.38756 -3.05108 2.54796 7.34271 -2.98481 2.50294 7.29738 -2.91293 2.46944 
7.25231 -2.83639 2.44731 7.20805 -2.75592 2.43679 7.16503 -2.6729 2.4378 
7.12374 -2.58817 2.45043 7.08476 -2.50238 2.47461 7.04862 -2.41601 2.51016 
7.01547 -2.33038 2.55571 6.98547 -2.24635 2.61099 6.95899 -2.16434 2.67557 
6.93639 -2.08496 2.74892 6.91781 -2.00859 2.83068 6.90334 -1.93629 2.92017 
6.8928 -1.86875 3.01614 6.8865 -1.80641 3.11797 6.88485 -1.74972 3.22533 
6.88782 -1.69906 3.33805 6.89544 -1.65496 3.4548 6.90795 -1.61798 3.57445 
6.92498 -1.58828 3.69624 6.94633 -1.56654 3.81902 6.9723 -1.55302 3.94207 
7.00314 -1.548 4.06487 7.03866 -1.55199 4.18619 7.07876 -1.56509 4.30453 
7.12367 -1.58741 4.41907 6.56825 -3.58127 3.84903 6.58299 -3.54303 3.79749 
6.59526 -3.50056 3.74922 6.60548 -3.454 3.70503 6.61408 -3.40346 3.66565 
6.62154 -3.34919 3.6317 6.62838 -3.29159 3.60356 6.63527 -3.23121 3.58135 
6.64253 -3.16876 3.56562 6.65014 -3.10514 3.55595 6.6586 -3.04106 3.55253 
6.66845 -2.97726 3.55556 6.67985 -2.91406 3.56494 6.69314 -2.85199 3.58042 
6.70867 -2.79168 3.60167 6.72642 -2.73417 3.62795 6.74648 -2.68031 3.65855 
6.76908 -2.63063 3.69289 6.79441 -2.58562 3.73026 6.8219 -2.54473 3.77011 
6.85184 -2.50863 3.81212 6.8845 -2.47801 3.85554 6.91994 -2.45331 3.89937 
6.95802 -2.43472 3.94267 6.99831 -2.42207 3.98468 7.0407 -2.41554 4.02471 
7.08512 -2.41542 4.06197 7.1314 -2.42178 4.09553 7.17918 -2.43449 4.12425 
7.22791 -2.4531 4.1474 7.27725 -2.47732 4.16474 7.327 -2.50698 4.17563 
7.37681 -2.54178 4.17922 7.42629 -2.58131 4.17482 7.475 -2.62498 4.16193 
7.52248 -2.67211 4.14019 7.56817 -2.72173 4.10925 7.61155 -2.77292 4.06899 
7.65198 -2.82476 4.01973 7.68881 -2.87678 3.96156 7.72137 -2.92802 3.89495 
7.74917 -2.97747 3.82047 7.77187 -3.02416 3.73877 7.78915 -3.06709 3.65065 
7.80082 -3.1051 3.55698 7.80651 -3.13733 3.45906 7.80623 -3.1633 3.35836 
7.80014 -3.18228 3.25624 7.78835 -3.19362 3.15404 7.77098 -3.19719 3.05317 
7.74824 -3.19268 2.95496 7.72062 -3.17997 2.86077 7.6887 -3.15905 2.77191 
7.65303 -3.13034 2.68952 7.61411 -3.09408 2.61464 7.57275 -3.05108 2.54796 
7.57275 -3.05108 2.54796 7.52927 -3.00148 2.4904 7.48418 -2.9455 2.44277 
7.43816 -2.88357 2.40566 7.39206 -2.81667 2.37893 7.34636 -2.7457 2.36301 
7.30139 -2.67167 2.35768 7.25765 -2.59517 2.36299 7.21564 -2.51678 2.37892 
7.17585 -2.43716 2.40538 7.13874 -2.35716 2.44226 7.10446 -2.27809 2.48875 
7.07338 -2.20057 2.54448 7.04574 -2.12489 2.60894 7.02182 -2.05151 2.68165 
7.00153 -1.98071 2.76218 6.9849 -1.91348 2.84963 6.97233 -1.85078 2.94365 
6.96379 -1.79283 3.04312 6.95951 -1.74005 3.14733 6.95957 -1.6926 3.25629 
6.96412 -1.65103 3.36972 6.97338 -1.61603 3.48614 6.98701 -1.58772 3.6045 
7.00495 -1.56672 3.72413 7.02727 -1.5535 3.84402 7.05392 -1.54806 3.96308 
7.08539 -1.5508 4.08119 7.12147 -1.56223 4.19715 7.1622 -1.58249 4.30962 
7.20763 -1.61163 4.41757 6.20442 -3.42625 4.09001 6.24153 -3.37886 4.09948 
6.28091 -3.33434 4.11009 6.32256 -3.29307 4.12122 6.36638 -3.25532 4.13221 
6.41195 -3.22101 4.14247 6.45891 -3.19024 4.15172 6.50668 -3.16324 4.15918 
6.55508 -3.14016 4.16444 6.6041 -3.12121 4.16723 6.65352 -3.10631 4.16702 
6.70305 -3.09528 4.1633 6.7524 -3.08776 4.15557 6.80119 -3.08335 4.14345 
6.84844 -3.08082 4.1269 6.89438 -3.08073 4.10622 6.93876 -3.0827 4.08129 
6.98127 -3.08626 4.05201 7.02164 -3.09077 4.01837 7.0596 -3.09558 3.98019 
7.09482 -3.10027 3.93775 7.12718 -3.10463 3.89183 7.15647 -3.10813 3.84277 
7.18254 -3.1101 3.79098 7.20522 -3.10988 3.73698 7.22402 -3.10642 3.68157 
7.23951 -3.10023 3.62556 7.25176 -3.09105 3.5694 7.26076 -3.07853 3.51387 
7.26659 -3.06245 3.45972 7.26942 -3.04264 3.40764 7.26967 -3.01927 3.35845 
7.26768 -2.99242 3.31276 7.26373 -2.96228 3.27085 7.25812 -2.92896 3.23314 
7.25117 -2.89261 3.20009 7.24326 -2.85343 3.17202 7.23484 -2.8119 3.14968 
7.22611 -2.76853 3.13297 7.21716 -2.7238 3.12183 7.20831 -2.67803 3.11638 
7.19992 -2.63166 3.11666 7.19262 -2.58556 3.12246 7.18628 -2.53952 3.13383 
7.18118 -2.49394 3.15061 7.17758 -2.44918 3.17261 7.17572 -2.40564 3.19958 
7.17576 -2.36398 3.23113 7.17777 -2.32498 3.26669 7.18194 -2.28897 3.30583 
7.18843 -2.25632 3.34805 7.1974 -2.22733 3.39283 7.20801 -2.20117 3.43973 
7.22076 -2.17858 3.48833 7.23601 -2.16019 3.53802 7.25383 -2.14624 3.58821 
7.27416 -2.13687 3.63862 7.29682 -2.13221 3.68864 7.32176 -2.13238 3.73753 
7.34894 -2.13756 3.78447 7.3783 -2.14794 3.82854 7.4097 -2.16349 3.86905 
7.44296 -2.18414 3.90533 7.47787 -2.20975 3.93675 7.51411 -2.24003 3.96274 
7.55137 -2.2747 3.98277 7.58943 -2.31349 3.99634 7.62799 -2.35611 4.00306 
7.66671 -2.40219 4.00259 7.705 -2.45148 3.99413 7.74231 -2.50359 3.97723 
7.77822 -2.55793 3.95174 7.81217 -2.61368 3.91762 7.84373 -2.6701 3.87494 
7.87249 -2.7264 3.82388 7.89802 -2.78168 3.76475 7.92017 -2.83527 3.6981 
7.9379 -2.88643 3.62408 7.95075 -2.93402 3.54333 7.95879 -2.97774 3.45703 
7.96173 -3.01673 3.36616 7.95911 -3.04971 3.27185 7.95092 -3.07584 3.17534 
7.93759 -3.09527 3.07794 7.919 -3.1075 2.98107 7.89535 -3.11193 2.88604 
7.86693 -3.10828 2.79405 7.83422 -3.09672 2.70615 7.79773 -3.07763 2.62379 
7.75793 -3.05108 2.54796 7.75793 -3.05108 2.54796 7.71531 -3.01721 2.47958 
7.67038 -2.9764 2.41924 7.62377 -2.92921 2.36732 7.5762 -2.87628 2.32474 
7.52823 -2.81823 2.29211 7.48009 -2.75563 2.26942 7.43226 -2.68941 2.25677 
7.38524 -2.62005 2.25435 7.33951 -2.54808 2.26223 7.29552 -2.47409 2.28037 
7.25376 -2.39871 2.3086 7.21427 -2.32298 2.34602 7.17733 -2.24758 2.3924 
7.14328 -2.17311 2.44779 7.1127 -2.1004 2.51186 7.08578 -2.0297 2.58406 
7.06232 -1.96145 2.66364 7.04223 -1.89653 2.7494 7.02595 -1.83515 2.84184 
7.01385 -1.77812 2.9406 7.00594 -1.72591 3.04423 7.00234 -1.67882 3.15206 
7.0028 -1.63678 3.26406 7.00784 -1.60069 3.37979 7.01688 -1.57104 3.49728 
7.03032 -1.54803 3.61645 7.04829 -1.53226 3.73685 7.07073 -1.52417 3.85706 
7.09748 -1.52366 3.97588 7.12889 -1.53106 4.09351 7.16497 -1.54705 4.20839 
7.20567 -1.57164 4.31939 7.25091 -1.60483 4.42561 8.3783 -1.7772 1.14838 
8.33738 -1.79134 1.2255 8.29661 -1.80281 1.30059 8.25611 -1.81179 1.37385 
8.21587 -1.81831 1.44559 8.17594 -1.82247 1.51609 8.13643 -1.82437 1.58565 
8.09764 -1.824 1.65518 8.05969 -1.8218 1.7247 8.02264 -1.81805 1.79411 
7.98702 -1.81326 1.86337 7.95282 -1.80752 1.93272 7.91966 -1.80056 2.00256 
7.88796 -1.79276 2.07344 7.85799 -1.78467 2.14498 7.8297 -1.77635 2.21713 
7.80313 -1.76797 2.28981 7.77832 -1.7597 2.36295 7.75533 -1.75155 2.43703 
[...]
POINT_DATA 67198
VECTORS Vectors float
-1.2283 1.07291 1.36303 -1.10787 1.07027 1.62064 -0.959422 1.01801 1.84802 
-0.809436 0.952061 2.05056 -0.650016 0.85514 2.23012 -0.482939 0.718045 2.38151 
-0.303878 0.55558 2.49246 -0.132976 0.376136 2.5594 0.0359046 0.173647 2.58556 
0.204845 -0.0424033 2.56922 0.359284 -0.267729 2.50653 0.498344 -0.497859 2.4023 
0.624014 -0.722321 2.2585 0.73256 -0.944932 2.07858 0.819735 -1.15476 1.8683 
0.885603 -1.35072 1.63832 0.926036 -1.51936 1.37722 0.949074 -1.68123 1.09478 
0.964318 -1.81207 0.820325 0.958871 -1.92204 0.529011 0.958871 -1.92204 0.529011 
0.934949 -2.01632 0.229761 0.891317 -2.08262 -0.0591938 0.846477 -2.12199 -0.327232 
0.787889 -2.14024 -0.605418 0.713701 -2.13298 -0.866742 0.624012 -2.10099 -1.1196 
0.540158 -2.04468 -1.34288 0.456423 -1.98149 -1.55323 0.357935 -1.89901 -1.77736 
0.249599 -1.79894 -1.96505 0.15657 -1.67953 -2.11452 0.0585951 -1.5512 -2.24717 
-0.0483893 -1.40977 -2.40597 -0.156921 -1.25256 -2.5064 -0.256103 -1.10101 -2.59701 
-0.360991 -0.937471 -2.68266 -0.460783 -0.750621 -2.72495 -0.563123 -0.560935 -2.74732 
-0.663145 -0.367369 -2.76371 -0.752041 -0.175351 -2.74623 -0.858121 0.0366173 -2.71258 
-1.3313 0.837222 0.47989 -1.28058 0.913738 0.713222 -1.21329 0.967831 0.94739 
-1.1274 0.996158 1.16669 -1.02867 0.999361 1.38115 -0.93132 0.989972 1.57565 
-0.799209 0.945206 1.77352 -0.65723 0.871624 1.95386 -0.519578 0.779367 2.10371 
-0.365985 0.660477 2.22418 -0.20716 0.511949 2.31389 -0.0572707 0.342513 2.36798 
0.0923972 0.17116 2.37937 0.240714 -0.0216137 2.35525 0.379205 -0.229935 2.29281 
0.494765 -0.423754 2.19502 0.605557 -0.621445 2.06045 0.702412 -0.820142 1.89564 
0.783551 -1.01195 1.71219 0.831791 -1.18042 1.49857 0.876957 -1.3398 1.27352 
0.908663 -1.47944 1.03376 0.92447 -1.60685 0.780235 0.92447 -1.60685 0.780235 
0.914661 -1.6883 0.529285 0.89765 -1.78051 0.260179 0.869054 -1.84907 0.00354271 
0.831396 -1.88157 -0.250158 0.781807 -1.90519 -0.502562 0.719576 -1.91367 -0.750651 
0.643203 -1.89673 -0.978884 0.579457 -1.85862 -1.17889 0.503044 -1.80853 -1.37988 
0.417621 -1.7448 -1.56964 0.324518 -1.66594 -1.75437 0.227242 -1.56591 -1.91691 
0.129436 -1.44405 -2.05499 0.0446367 -1.33253 -2.17672 -0.0543909 -1.19801 -2.292 
-0.155227 -1.05373 -2.38518 -0.236941 -0.926301 -2.46274 -0.341515 -0.767123 -2.52605 
-0.434763 -0.598521 -2.56468 -0.529548 -0.423798 -2.58319 -0.629499 -0.244723 -2.5966 
-0.715585 -0.0580851 -2.5619 -0.811972 0.135294 -2.51568 -0.920349 0.334352 -2.46937 
-0.169148 -1.37615 0.418165 -0.185344 -1.42342 0.276232 -0.214231 -1.45806 0.130238 
-0.255815 -1.47844 -0.0169483 -0.309412 -1.48165 -0.161801 -0.369797 -1.47179 -0.301469 
-0.425396 -1.43614 -0.417095 -0.489715 -1.3729 -0.526348 -0.560111 -1.29685 -0.621524 
-0.611086 -1.2451 -0.707733 -0.685623 -1.14613 -0.785077 -0.764057 -1.03216 -0.844157 
-0.829857 -0.916629 -0.880795 -0.888227 -0.781507 -0.897846 -0.946039 -0.638685 -0.892599 
-1.00272 -0.490611 -0.86649 -1.05694 -0.339086 -0.819067 -1.10735 -0.18607 -0.750199 
-1.12964 -0.0631755 -0.662101 -1.15951 0.0798231 -0.563419 -1.18312 0.21912 -0.446765 
-1.20102 0.354572 -0.31486 -1.21197 0.48409 -0.168126 -1.21402 0.604419 -0.00677983 
-1.20639 0.713588 0.167303 -1.17857 0.796827 0.349987 -1.14393 0.879225 0.536287 
-1.08942 0.942331 0.737402 -1.0228 0.985608 0.940375 -0.944386 1.00762 1.14172 
-0.854785 1.00642 1.33792 -0.755539 0.975017 1.52566 -0.65044 0.929107 1.69847 
-0.527791 0.851736 1.84586 -0.404161 0.759342 1.96819 -0.26703 0.645286 2.07164 
-0.130065 0.510527 2.14596 0.00541644 0.366088 2.18052 0.138734 0.208005 2.19293 
0.267787 0.0368247 2.17692 0.387806 -0.144512 2.12171 0.495187 -0.31981 2.03422 
0.588038 -0.485467 1.92432 0.679675 -0.670645 1.78088 0.749221 -0.840508 1.61346 
0.811413 -0.99182 1.43412 0.856108 -1.13197 1.23172 0.887312 -1.26377 1.01433 
0.887312 -1.26377 1.01433 0.904464 -1.3853 0.784159 0.906208 -1.48636 0.557439 
0.894078 -1.57275 0.326535 0.876594 -1.64242 0.0933429 0.845005 -1.67974 -0.136447 
0.804633 -1.70706 -0.368537 0.753104 -1.72409 -0.598283 0.689871 -1.72671 -0.820223 
0.632151 -1.69656 -1.00952 0.566139 -1.6625 -1.20028 0.492068 -1.616 -1.38118 
0.410522 -1.55713 -1.55067 0.328816 -1.49275 -1.72074 0.250471 -1.39929 -1.85735 
0.170032 -1.30069 -1.97935 0.0804312 -1.19139 -2.09203 -0.0141878 -1.07621 -2.20869 
-0.105284 -0.948866 -2.29723 -0.200566 -0.813437 -2.36953 -0.296105 -0.668628 -2.41578 
-0.384399 -0.51455 -2.44989 -0.471893 -0.353678 -2.46034 -0.567821 -0.18634 -2.45888 
-0.664083 -0.0117975 -2.44793 -0.756961 0.171647 -2.40161 -0.847055 0.352343 -2.32829 
-0.949196 0.542126 -2.25126 -0.323405 -0.719173 1.05463 -0.26839 -0.808042 1.00154 
-0.223579 -0.890583 0.92707 -0.186765 -0.971595 0.837954 -0.158955 -1.04902 0.735292 
-0.141014 -1.12078 0.620539 -0.134413 -1.18185 0.503952 -0.141413 -1.23059 0.379071 
-0.147495 -1.26311 0.254014 -0.158294 -1.28011 0.132641 -0.182266 -1.28011 0.00349525 
-0.211437 -1.27165 -0.124706 -0.245672 -1.25468 -0.24955 -0.287193 -1.22592 -0.368665 
-0.333836 -1.18315 -0.478582 -0.377244 -1.11545 -0.57073 -0.425808 -1.03707 -0.651552 
-0.478703 -0.948496 -0.719458 -0.535004 -0.850377 -0.772986 -0.571845 -0.774312 -0.820809 
-0.625802 -0.668454 -0.857139 -0.680988 -0.554537 -0.875954 -0.736551 -0.432572 -0.873974 
-0.784265 -0.312602 -0.855892 -0.826912 -0.192728 -0.821832 -0.868584 -0.0668302 -0.775977 
-0.907722 0.0621286 -0.711754 -0.942814 0.192363 -0.625601 -0.967245 0.315675 -0.520437 
-0.980594 0.42757 -0.406463 -0.992072 0.539861 -0.284458 -0.996686 0.645451 -0.148443 
-0.994316 0.745138 0.00638579 -0.983405 0.834062 0.171545 -0.963518 0.910657 0.345028 
-0.933454 0.970571 0.526069 -0.892638 1.0112 0.712075 -0.837466 1.02937 0.896961 
-0.775249 1.04222 1.07379 -0.695951 1.03607 1.24976 -0.604882 1.01023 1.4129 
-0.506109 0.964647 1.56428 -0.400685 0.899386 1.70104 -0.289876 0.81457 1.82034 
-0.174892 0.704167 1.9217 -0.05309 0.583053 1.99088 0.0642873 0.452842 2.03288 
0.17913 0.304492 2.04764 0.292121 0.149731 2.03538 0.402124 -0.00830258 1.99505 
0.506259 -0.172825 1.92921 0.596961 -0.336364 1.83393 0.677607 -0.497723 1.71659 
0.747648 -0.650194 1.57584 0.807327 -0.799655 1.41607 0.849376 -0.92525 1.24591 
0.849376 -0.92525 1.24591 0.887777 -1.05738 1.05405 0.913457 -1.18098 0.848527 
0.924709 -1.29178 0.638094 0.918185 -1.38278 0.424392 0.908371 -1.45188 0.212741 
0.8888 -1.50719 0.000315309 0.859147 -1.55094 -0.212592 0.819595 -1.5825 -0.424135 
0.770326 -1.59988 -0.636126 0.715026 -1.59346 -0.834677 0.654726 -1.56753 -1.02376 
0.588107 -1.53323 -1.2036 0.516364 -1.49223 -1.37326 0.44177 -1.44332 -1.53482 
0.371067 -1.38342 -1.67842 0.292134 -1.30104 -1.81965 0.211775 -1.20785 -1.93727 
0.128846 -1.10865 -2.03918 0.0416602 -1.00123 -2.12655 -0.0451111 -0.893605 -2.23146 
-0.137233 -0.768051 -2.30317 -0.231176 -0.632373 -2.35081 -0.31538 -0.49743 -2.38319 
-0.402865 -0.342228 -2.39898 -0.488419 -0.187449 -2.39117 -0.580974 -0.0283434 -2.37202 
-0.675718 0.140809 -2.34714 -0.767957 0.316803 -2.28761 -0.861525 0.493569 -2.20781 
-0.954098 0.675233 -2.106 -0.719706 -0.973595 -0.174383 -0.764718 -0.920384 -0.202778 
-0.81034 -0.859141 -0.219465 -0.855447 -0.790788 -0.223393 -0.895087 -0.720485 -0.214333 
-0.925878 -0.653247 -0.196455 -0.948437 -0.578134 -0.169009 -0.961529 -0.501881 -0.12782 
-0.974883 -0.420276 -0.0822382 -0.985181 -0.337998 -0.0275443 -0.990456 -0.258253 0.0375577 
-0.989944 -0.184494 0.113121 -0.983119 -0.117068 0.197288 -0.957735 -0.0753967 0.289229 
-0.932691 -0.025221 0.371846 -0.904128 0.0202235 0.455705 -0.869777 0.0568853 0.541929 
-0.829702 0.0831257 0.629147 -0.784152 0.0956653 0.716113 -0.732572 0.0950188 0.811034 
-0.676387 0.0920974 0.884628 -0.617083 0.0804526 0.950973 -0.554073 0.0569931 1.01001 
-0.488339 0.0198282 1.05978 -0.411325 -0.0413337 1.09702 -0.342312 -0.0961794 1.11605 
-0.277321 -0.152421 1.12304 -0.212546 -0.216275 1.12022 -0.147743 -0.285272 1.09893 
-0.0858795 -0.358481 1.06449 -0.0293168 -0.432673 1.01546 0.0183139 -0.502298 0.950508 
0.060422 -0.570395 0.876955 0.0965903 -0.635012 0.797761 0.126706 -0.697304 0.709087 
0.150289 -0.756108 0.611725 0.164966 -0.80866 0.505381 0.170566 -0.850986 0.387864 
0.177939 -0.882226 0.279238 0.179089 -0.906166 0.166072 0.173854 -0.923254 0.051581 
0.153999 -0.920417 -0.0600412 0.137355 -0.922561 -0.172063 0.115232 -0.917445 -0.281968 
0.0878329 -0.904771 -0.388578 0.0554204 -0.884322 -0.490706 0.01832 -0.855968 -0.587172 
-0.0197899 -0.807859 -0.672477 -0.0611797 -0.75127 -0.748548 -0.106165 -0.687678 -0.815307 
-0.154216 -0.617459 -0.871842 -0.204753 -0.541085 -0.917326 -0.230188 -0.492201 -0.957041 
-0.279814 -0.410649 -0.984988 -0.3306 -0.324097 -1.00089 -0.381907 -0.233218 -1.00422 
-0.430205 -0.140806 -1.00745 -0.476192 -0.0452496 -0.991146 -0.521192 0.052241 -0.962167 
-0.565823 0.155524 -0.912468 -0.6081 0.259444 -0.848037 -0.647208 0.362365 -0.770076 
-0.682512 0.463192 -0.679042 -0.712927 0.560313 -0.575721 -0.735756 0.650242 -0.461989 
-0.75401 0.735533 -0.337659 -0.767241 0.815222 -0.203628 -0.774093 0.888245 -0.0653766 
-0.773229 0.953773 0.0868634 -0.757182 1.01576 0.253114 -0.733809 1.06694 0.423492 
-0.70024 1.10344 0.596159 -0.656565 1.12415 0.768452 -0.604487 1.12976 0.938209 
-0.544321 1.11969 1.10308 -0.475504 1.08787 1.26102 -0.403048 1.05241 1.40775 
-0.305028 0.99051 1.55048 -0.20942 0.91504 1.67387 -0.111739 0.830894 1.77501 
-0.00336429 0.723776 1.85625 0.10838 0.592948 1.91215 0.215909 0.454605 1.94491 
0.319417 0.318766 1.94696 0.423284 0.167905 1.92325 0.521811 0.00850844 1.87399 
0.612514 -0.15471 1.80562 0.693624 -0.306795 1.70617 0.764398 -0.456597 1.58515 
0.825951 -0.60477 1.44501 0.825951 -0.60477 1.44501 0.877429 -0.749483 1.28696 
0.917633 -0.881396 1.12512 0.944387 -1.00459 0.946971 0.9566 -1.10995 0.754487 
0.96036 -1.21075 0.549446 0.961356 -1.28948 0.354376 0.950055 -1.35759 0.150985 
0.929146 -1.41519 -0.0545211 0.898734 -1.46159 -0.260396 0.859006 -1.4962 -0.464866 
0.812426 -1.51375 -0.656484 0.765915 -1.51378 -0.839384 0.712067 -1.50104 -1.01513 
0.647289 -1.47319 -1.19642 0.575654 -1.43546 -1.36425 0.502034 -1.39282 -1.52349 
0.436766 -1.33188 -1.65352 0.365701 -1.26348 -1.77541 0.283257 -1.18661 -1.92135 
0.200768 -1.09377 -2.02626 0.114791 -0.993547 -2.11651 0.0321877 -0.892118 -2.19649 
-0.0539843 -0.783872 -2.28238 -0.148217 -0.658583 -2.3445 -0.223281 -0.527169 -2.36641 
-0.314819 -0.391765 -2.40303 -0.404418 -0.238653 -2.40994 -0.491791 -0.0860984 -2.39341 
-0.578534 0.0665402 -2.35698 -0.674846 0.233395 -2.32941 -0.768378 0.406528 -2.26224 
-0.857352 0.574834 -2.17461 -0.950584 0.754666 -2.07 0.815306 0.314432 -1.56507 
0.818395 0.254192 -1.52201 0.812274 0.204941 -1.48235 0.807514 0.154631 -1.44908 
0.801861 0.106353 -1.42152 0.795273 0.0601948 -1.39929 0.783591 0.0161948 -1.38491 
0.767515 -0.0269099 -1.39164 0.75026 -0.0603552 -1.38935 0.731624 -0.0893325 -1.38752 
0.693864 -0.101938 -1.38338 0.673674 -0.127315 -1.39117 0.651908 -0.1529 -1.41043 
0.616218 -0.158592 -1.42453 0.58274 -0.164654 -1.43702 0.548685 -0.167539 -1.44845 
0.513916 -0.167058 -1.45853 0.478521 -0.163319 -1.4669 0.439307 -0.161111 -1.49887 
0.396764 -0.145769 -1.51337 0.352689 -0.123672 -1.51977 0.308119 -0.0975167 -1.52068 
0.263481 -0.0683363 -1.51689 0.212258 -0.0362858 -1.5243 0.163575 0.00298584 -1.52151 
0.115083 0.0449594 -1.5128 0.0664072 0.0912521 -1.49531 0.0170455 0.143824 -1.46527 
-0.039996 0.202752 -1.43444 -0.091492 0.260811 -1.40653 -0.139887 0.321396 -1.36454 
-0.187916 0.386623 -1.309 -0.234844 0.455036 -1.24033 -0.287025 0.527731 -1.16866 
-0.337588 0.600661 -1.08818 -0.385928 0.672142 -1.01235 -0.426596 0.746858 -0.907839 
-0.463226 0.817921 -0.793898 -0.507073 0.892358 -0.680878 -0.533207 0.967467 -0.54372 
-0.55359 1.03838 -0.394195 -0.567369 1.10177 -0.237152 -0.574251 1.1567 -0.073944 
-0.574006 1.20226 0.0939692 -0.564436 1.23406 0.266472 -0.546282 1.25267 0.440608 
-0.511335 1.26848 0.619082 -0.468141 1.27033 0.793298 -0.417486 1.25793 0.963474 
-0.359737 1.23092 1.12753 -0.2939 1.18725 1.28844 -0.217916 1.12737 1.42793 
-0.141734 1.05952 1.54887 -0.044319 0.971812 1.66274 0.0563867 0.868789 1.75868 
0.15793 0.749048 1.83845 0.26182 0.619522 1.8805 0.361899 0.482586 1.89911 
0.459517 0.336551 1.89478 0.553573 0.18599 1.87291 0.640805 0.0321172 1.82009 
0.715556 -0.107999 1.74804 0.793497 -0.266154 1.64709 0.793497 -0.266154 1.64709 
0.863148 -0.423402 1.52568 0.920203 -0.576118 1.39335 0.961276 -0.709985 1.23605 
0.995336 -0.841073 1.06387 1.01909 -0.965463 0.879467 1.03153 -1.07434 0.695892 
1.03635 -1.17214 0.507585 1.03269 -1.24911 0.312627 1.02108 -1.31723 0.112776 
1.00034 -1.3784 -0.0906499 0.970266 -1.43066 -0.295956 0.930048 -1.46756 -0.495409 
0.889994 -1.484 -0.673914 0.843944 -1.49104 -0.858029 0.790608 -1.4876 -1.03732 
0.723383 -1.46389 -1.20595 0.663465 -1.4441 -1.37206 0.588084 -1.40754 -1.54206 
0.517026 -1.34392 -1.67812 0.442114 -1.27618 -1.80696 0.366576 -1.20527 -1.92198 
0.291448 -1.13837 -2.06235 0.204536 -1.04307 -2.16142 0.113523 -0.939304 -2.24614 
0.0334752 -0.841387 -2.32514 -0.0495338 -0.721801 -2.38665 -0.134953 -0.592046 -2.43093 
-0.216093 -0.464006 -2.45268 -0.312162 -0.32828 -2.49713 -0.404111 -0.174404 -2.49599 
-0.4923 -0.0224724 -2.47019 -0.582894 0.125889 -2.45351 -0.679037 0.300321 -2.40071 
-0.776729 0.476228 -2.32752 -0.861723 0.639567 -2.23285 0.350436 1.09546 -3.46726 
0.36647 1.03556 -3.32156 0.378289 0.987614 -3.16683 0.383097 0.934345 -3.05031 
0.378712 0.901927 -2.91299 0.364581 0.868981 -2.78923 0.347467 0.842011 -2.68519 
0.320236 0.825827 -2.57372 0.287507 0.811362 -2.46954 0.249309 0.809791 -2.37065 
0.213556 0.814428 -2.26781 0.177739 0.823622 -2.15939 0.129234 0.842622 -2.05735 
0.0883651 0.861567 -1.95413 0.0423312 0.887584 -1.84591 -0.0133211 0.922789 -1.73444 
-0.0645893 0.956462 -1.62091 -0.11127 0.993806 -1.50301 -0.1667 1.04088 -1.38109 
-0.207163 1.08685 -1.24707 -0.244149 1.1328 -1.10358 -0.284706 1.184 -0.952792 
-0.324004 1.23337 -0.798714 -0.358122 1.27599 -0.649647 -0.383436 1.31863 -0.479572 
-0.404205 1.36033 -0.307348 -0.410801 1.39746 -0.127475 -0.410461 1.42599 0.0565602 
-0.403239 1.44718 0.246959 -0.386878 1.45389 0.437605 -0.361798 1.44601 0.625952 
-0.321979 1.4344 0.814696 -0.273938 1.41363 0.995866 -0.216324 1.37636 1.16829 
-0.145097 1.31774 1.32807 -0.0677492 1.24153 1.47332 0.0148819 1.14693 1.60128 
0.107248 1.04618 1.71224 0.198151 0.939559 1.80087 0.29481 0.818117 1.86655 
0.399308 0.677888 1.9084 0.502309 0.526828 1.92612 0.596256 0.369698 1.9202 
0.687431 0.212756 1.88156 0.773158 0.051383 1.82016 0.773158 0.051383 1.82016 
0.852355 -0.112524 1.73666 0.921913 -0.270396 1.63996 0.976096 -0.413266 1.51839 
1.02593 -0.558924 1.37403 1.07051 -0.704465 1.21176 1.10482 -0.844473 1.03471 
1.12785 -0.97223 0.852338 1.13994 -1.08769 0.665755 1.14205 -1.18795 0.471743 
1.13579 -1.27139 0.274246 1.11908 -1.3396 0.075529 1.09658 -1.40166 -0.127552 
1.06649 -1.45457 -0.331389 1.02895 -1.49788 -0.53459 0.984006 -1.51972 -0.732435 
0.935297 -1.52845 -0.922775 0.880298 -1.5277 -1.10492 0.81793 -1.51327 -1.27598 
0.744071 -1.48271 -1.44203 0.678905 -1.44957 -1.59737 0.611392 -1.40604 -1.7508 
0.53024 -1.33679 -1.89191 0.451202 -1.26741 -2.0163 0.369344 -1.19147 -2.12931 
0.29396 -1.1201 -2.25055 0.201484 -1.0229 -2.35388 0.127728 -0.914275 -2.41826 
0.0401463 -0.803494 -2.48833 -0.0513104 -0.681729 -2.56613 -0.135803 -0.552392 -2.59818 
-0.223093 -0.41891 -2.61542 -0.319003 -0.280557 -2.66369 -0.410956 -0.125558 -2.64966 
-0.504075 0.0311956 -2.61947 -0.601782 0.191915 -2.61294 -0.698928 0.369368 -2.54486 
-0.793344 0.542412 -2.46204 0.204539 1.54729 -3.12193 0.19313 1.50897 -2.93283 
0.166692 1.48465 -2.75646 0.139515 1.46827 -2.5726 0.114569 1.45049 -2.39268 
0.0743236 1.441 -2.23269 0.0269519 1.44944 -2.06138 -0.0140038 1.4649 -1.87906 
-0.0515593 1.47782 -1.69629 -0.0991983 1.49704 -1.52805 -0.142002 1.52065 -1.34392 
-0.186841 1.54477 -1.1615 -0.222581 1.58163 -0.961599 -0.252813 1.61276 -0.758749 
-0.277454 1.63769 -0.553878 -0.293796 1.65322 -0.349187 -0.303743 1.66334 -0.145098 
-0.301771 1.68003 0.0705794 -0.286991 1.67971 0.283679 -0.268067 1.67166 0.492279 
-0.241136 1.65092 0.695557 -0.202902 1.61981 0.892171 -0.144059 1.57441 1.08429 
-0.0785505 1.51412 1.26508 -0.00704215 1.43925 1.43282 0.0697112 1.34977 1.58504 
0.154038 1.24479 1.71471 0.249325 1.12998 1.82125 0.350888 0.999842 1.90888 
0.452999 0.857261 1.97412 0.55075 0.709537 2.0086 0.644986 0.557124 2.01459 
0.745229 0.388027 1.99308 0.745229 0.388027 1.99308 0.839559 0.210278 1.94447 
0.923577 0.0354809 1.87517 0.998457 -0.131709 1.77573 1.06546 -0.298585 1.65591 
1.12382 -0.463535 1.51676 1.17247 -0.617188 1.37124 1.2074 -0.759422 1.20289 
1.23068 -0.892433 1.01798 1.24486 -1.01882 0.822208 1.25176 -1.13949 0.615619 
1.2555 -1.23886 0.420895 1.24735 -1.32918 0.21351 1.22165 -1.39274 0.0127635 
1.19586 -1.45687 -0.197756 1.16166 -1.51329 -0.409625 1.11939 -1.55917 -0.620552 
1.08142 -1.57939 -0.805157 1.03174 -1.59265 -0.995557 0.975539 -1.5963 -1.18104 
0.91223 -1.58945 -1.36333 0.837083 -1.56484 -1.54319 0.767515 -1.52347 -1.70224 
0.694825 -1.4734 -1.8486 0.621746 -1.42059 -1.98395 0.544698 -1.36739 -2.14847 
0.456865 -1.29032 -2.27301 0.369965 -1.20926 -2.38844 0.292071 -1.11681 -2.48769 
0.207963 -1.00773 -2.57347 0.125987 -0.897998 -2.64079 0.0310252 -0.788137 -2.7346 
-0.054794 -0.662239 -2.78777 -0.147194 -0.524399 -2.81637 -0.240815 -0.390704 -2.86074 
-0.33217 -0.242728 -2.87551 -0.432065 -0.0782724 -2.85646 -0.522986 0.0733015 -2.85586 
-0.623065 0.252802 -2.80766 -0.720267 0.430551 -2.73903 -1.27423 0.946133 0.987829 
-1.1896 0.976471 1.2263 -1.07577 0.980493 1.45458 -0.95007 0.95765 1.66385 
-0.813159 0.905931 1.85894 -0.666786 0.825138 2.03509 -0.514743 0.707712 2.18745 
-0.354775 0.577306 2.29723 -0.19295 0.421942 2.3753 -0.0377062 0.236518 2.41923 
0.119244 0.048025 2.41627 0.266854 -0.14924 2.37501 0.403045 -0.361508 2.29471 
0.523541 -0.573703 2.18222 0.628662 -0.773619 2.02717 0.718497 -0.972403 1.84239 
0.791629 -1.16008 1.6452 0.840955 -1.33617 1.41716 0.869824 -1.48559 1.17178 
0.891395 -1.6093 0.918899 0.896773 -1.71848 0.655264 0.884976 -1.81621 0.381493 
0.85618 -1.89699 0.10241 0.85618 -1.89699 0.10241 0.821496 -1.94382 -0.146974 
0.775416 -1.97185 -0.407317 0.716022 -1.98295 -0.663487 0.643039 -1.97333 -0.908077 
0.564611 -1.93966 -1.12917 0.489308 -1.88823 -1.33696 0.403724 -1.81988 -1.53591 
0.302845 -1.72665 -1.7249 0.209805 -1.63989 -1.89994 0.114688 -1.51912 -2.04108 
0.0269999 -1.40196 -2.16322 -0.0784931 -1.25706 -2.29356 -0.181344 -1.10747 -2.38471 
-0.271913 -0.967222 -2.46531 -0.376486 -0.803284 -2.5323 -0.47165 -0.637927 -2.57551 
-0.566583 -0.459646 -2.59549 -0.660069 -0.275636 -2.59877 -0.750548 -0.0825616 -2.57074 
-0.852271 0.118599 -2.53046 -0.956074 0.323429 -2.47672 -0.580802 -1.389 -0.583586 
-0.651534 -1.30964 -0.661129 -0.729357 -1.21188 -0.729799 -0.800691 -1.10678 -0.797886 
-0.878817 -0.981809 -0.828973 -0.944227 -0.863119 -0.84415 -1.01183 -0.72567 -0.847839 
-1.07711 -0.580148 -0.829802 -1.13889 -0.427706 -0.787486 -1.17516 -0.285895 -0.704727 
-1.21584 -0.13434 -0.616201 -1.25265 0.0172101 -0.510558 -1.27658 0.158845 -0.386561 
-1.28804 0.293729 -0.25047 -1.28964 0.424262 -0.0959464 -1.27727 0.542852 0.0770534 
-1.25378 0.649125 0.262607 -1.2187 0.740926 0.458136 -1.17172 0.816222 0.660762 
-1.09842 0.850783 0.857998 -1.02514 0.882115 1.05014 -0.941897 0.893863 1.23805 
-0.848415 0.88321 1.4192 -0.746351 0.842996 1.59052 -0.634895 0.783901 1.74278 
-0.509283 0.710278 1.87713 -0.378838 0.614593 1.98998 -0.236265 0.489673 2.07871 
-0.100409 0.346154 2.13398 0.0292353 0.202131 2.15288 0.160063 0.0399641 2.14293 
0.289552 -0.141812 2.10014 0.39784 -0.317013 2.02325 0.494282 -0.486113 1.91376 
0.585289 -0.662517 1.77752 0.664707 -0.837024 1.62099 0.72793 -0.999395 1.44725 
0.776953 -1.1385 1.25359 0.81267 -1.26976 1.0443 0.83094 -1.3866 0.81821 